                                 *****************
                                 * O   R   C   A *
                                 *****************

                                            Version 5.0.3

---------------------------------
CARTESIAN COORDINATES (ANGSTROEM)
---------------------------------
  O      0.000000    0.000000    0.119262
  H      0.000000    0.763239   -0.477049
  H      0.000000   -0.763239   -0.477049

-----------
VIBRATIONS
-----------

VIBRATIONAL FREQUENCIES
-----------------------

Scaling factor for frequencies =  1.000000000  (already applied!)

   0:         0.00 cm**-1
   1:         0.00 cm**-1
   2:         0.00 cm**-1
   3:         0.00 cm**-1
   4:         0.00 cm**-1
   5:         0.00 cm**-1
   6:      1595.03 cm**-1
   7:      3656.94 cm**-1
   8:      3756.82 cm**-1

------------
NORMAL MODES
------------

These modes are the Cartesian displacements weighted by the diagonal matrix
M(i,i)=1/sqrt(m[i]) where m[i] is the mass of the displaced atom
Thus, these vectors are normalized but *not* orthogonal

                  0          1          2          3          4          5
 0   0.000000  0.000000  0.000000  0.000000  0.000000  0.000000
 1   0.000000  0.000000  0.000000  0.000000  0.000000  0.000000
 2   0.000000  0.000000  0.000000  0.000000  0.000000  0.000000
 3   0.000000  0.000000  0.000000  0.000000  0.000000  0.000000
 4   0.000000  0.000000  0.000000  0.000000  0.000000  0.000000
 5   0.000000  0.000000  0.000000  0.000000  0.000000  0.000000
 6   0.000000  0.000000  0.000000  0.000000  0.000000  0.000000
 7   0.000000  0.000000  0.000000  0.000000  0.000000  0.000000
 8   0.000000  0.000000  0.000000  0.000000  0.000000  0.000000

                  6          7          8
 0   0.000000  0.000000  0.000000
 1   0.070000 -0.000000 -0.060000
 2   0.000000  0.060000  0.000000
 3   0.000000  0.000000  0.000000
 4  -0.560000 -0.590000  0.470000
 5  -0.430000  0.430000 -0.600000
 6   0.000000  0.000000  0.000000
 7  -0.560000  0.590000  0.470000
 8   0.430000  0.430000  0.600000

