[Molden Format]
[Title]
Water molecule vibrational analysis

[Atoms] Angs
O  1   8   0.000000  0.000000  0.119262
H  2   1   0.000000  0.763239 -0.477049
H  3   1   0.000000 -0.763239 -0.477049

[FREQ]
1595.0338
3656.9382
3756.8229

[INT]
75.0326
10.2941
57.3682

[FR-COORD]
O   0.000000  0.000000  0.225346
H   0.000000  1.442361 -0.901384
H   0.000000 -1.442361 -0.901384

[FR-NORM-COORD]
vibration 1
0.000000 0.070000 0.000000
0.000000 -0.560000 -0.430000
0.000000 -0.560000 0.430000

vibration 2
0.000000 0.000000 0.060000
0.000000 -0.590000 0.430000
0.000000 0.590000 0.430000

vibration 3
0.000000 -0.060000 0.000000
0.000000 0.470000 -0.600000
0.000000 0.470000 0.600000
